ITEM: TIMESTEP
0
ITEM: NUMBER OF ATOMS
58
ITEM: BOX BOUNDS xy xz yz pp pp pp
-4.0317307698769200e+00 8.0634615400000005e+00 -4.0317307698769200e+00
0.0000000000000000e+00 7.1869279372575257e+00 0.0000000000000000e+00
0.0000000000000000e+00 2.7186622000000000e+01 2.0631670725752604e-01
ITEM: ATOMS element xu yu zu fx fy fz
Pt 9.3e-07 -2.29572 -5.50811 -0.000719091 -0.18067 -0.463397
Pt 2.68782 -2.29572 -5.50811 -0.00410837 -0.175795 -0.481329
Pt 5.37564 -2.29573 -5.50811 0.00485271 -0.183291 -0.495788
Mn -1.34391 -0.12836 -5.50602 0.003747 0.442167 1.34042
Mn 1.34391 -0.12836 -5.50601 -0.00440651 0.451019 1.35417
Mn 4.03174 -0.12836 -5.50602 -7.28785e-06 0.444826 1.34289
Pt -2.68782 2.15736 -5.35631 0.000860356 -0.488443 -0.759625
Pt -8e-08 2.15736 -5.35631 -0.00700619 -0.489192 -0.783685
Pt 2.68782 2.15736 -5.35631 0.00637139 -0.482166 -0.768434
Pt 1.34391 -3.17897 -3.15231 -0.011579 0.0360377 0.481637
Pt 4.03173 -3.17897 -3.1523 -0.000411249 0.0424537 0.458071
Pt 6.71955 -3.17897 -3.1523 0.00648581 0.04591 0.662534
Pt 2.7e-07 -0.80118 -3.24532 -0.0225624 0.0860519 0.132836
Pt 2.68782 -0.80118 -3.24532 0.028777 0.0309294 0.0373407
Pt 5.37564 -0.80118 -3.24532 -0.00213657 0.0711725 0.0993195
Pt -1.34391 1.48492 -3.02806 0.0448011 -0.0641818 0.070236
Pt 1.34391 1.48492 -3.02805 -0.0681866 -0.0437357 0.0706208
Pt 4.03173 1.48493 -3.02806 0.0200458 0.00588257 0.0580078
Mn 4.03173 2.93592 -0.8693 -0.0946302 0.128979 -1.00299
Mn -1.34391 2.93593 -0.8693 -0.104669 0.232257 -0.931315
Mn 1.34391 2.93593 -0.8693 -0.0332597 0.165823 -0.852813
Pt 6.71955 -1.68084 -0.9373 0.591912 0.1565 -0.0312648
Pt 1.34391 -1.68084 -0.9373 -0.0282803 0.648162 0.617769
Pt 4.03173 -1.68084 -0.9373 -0.636182 0.857242 0.00523069
Mn -2.68782 0.96597 -0.9363 -0.452745 -0.47735 0.0235191
Mn 1.81e-06 0.96597 -0.9363 0.215084 -0.372641 -0.2592
Mn 2.68782 0.96597 -0.9363 0.198485 -0.756478 0.107733
Mn 0.18777 -2.17121 1.29444 -0.0821009 -0.0441773 -0.131513
Mn -2.22959 2.31093 6.66822 -0.0449227 -0.116601 0.66242
Pt 1.37799 -3.00524 3.37988 0.10841 -0.057594 0.184348
Mn 2.61516 -2.20279 1.21886 0.0262959 -0.108831 -0.254309
Pt 0.0914948 2.41398 5.51295 -0.147908 -0.14772 -0.28607
Mn 4.0986 -3.13689 3.36208 0.0283664 0.0164711 0.227304
Pt 5.27972 -2.2946 1.24268 0.0505831 0.0520882 -0.0880335
Pt 2.76304 2.28456 5.60604 -0.383918 -0.319545 -0.18979
Pt 6.75597 -3.05626 3.31771 -0.015926 -0.0841243 0.465348
Pt -1.2712 -0.0292474 1.1016 -0.299405 0.0986743 -0.0179997
Pt 0.292234 -2.58777 6.0486 0.076041 0.884395 -0.342435
Mn 0.125334 -0.65633 3.13909 0.137382 -0.084828 0.239613
Mn 1.37264 -0.134234 1.1381 0.066611 0.101809 -0.0107753
Pt 2.84068 -2.27104 5.57424 0.214312 0.057498 -0.472402
Pt 2.69396 -0.699329 3.21349 0.0354004 -0.154218 0.111017
Mn 3.82429 -0.0417845 0.969784 0.314824 -0.052342 0.148634
Pt 5.45281 -2.2026 5.70307 -0.206261 -0.099947 -0.209496
Pt 5.4313 -0.760763 3.40101 0.0831155 0.0214394 0.0309718
Pt -2.72737 2.39503 1.15178 0.0265192 -0.00777372 -0.117
Pt -1.28176 0.0765112 5.65752 0.0891598 -0.00828499 -0.150804
Pt -1.24493 1.57012 3.37576 0.0522051 0.0260215 0.103692
Pt 0.0150372 2.36453 1.18031 -0.0699269 -0.214738 0.134268
Pt 1.44265 -0.0203176 5.47772 0.00476374 0.20442 0.0954816
Mn 1.31128 1.52997 3.36828 -0.0515437 0.144945 0.14089
Pt 2.65548 2.22951 1.17143 0.216111 0.0970415 -0.139641
Mn 4.13841 -0.064268 5.49229 -0.0978069 0.415554 0.0441943
Pt 4.05437 1.55289 3.40649 -0.0523762 0.0848617 -0.182974
O 0.179134 -0.629657 6.95709 0.0565677 -0.27634 -0.173997
O 6.64344 -3.14482 7.04314 0.0817656 -0.235742 0.161134
O -1.73529 2.5754 8.10972 -0.0232698 -0.00402896 -0.0196901
O 4.37248 1.24195 6.67832 0.1564 -0.319852 0.00510771
ITEM: TIMESTEP
1
ITEM: NUMBER OF ATOMS
58
ITEM: BOX BOUNDS xy xz yz pp pp pp
-4.0317307698769200e+00 8.0634615400000005e+00 -4.0317307698769200e+00
0.0000000000000000e+00 7.1869279372575257e+00 0.0000000000000000e+00
0.0000000000000000e+00 2.7186622000000000e+01 2.0631670725752604e-01
ITEM: ATOMS element xu yu zu fx fy fz
Pt 9.3e-07 -2.29572 -5.50811 -0.000719091 -0.18067 -0.463397
Pt 2.68782 -2.29572 -5.50811 -0.00410837 -0.175795 -0.481329
Pt 5.37564 -2.29573 -5.50811 0.00485271 -0.183291 -0.495788
Mn -1.34391 -0.12836 -5.50602 0.003747 0.442167 1.34042
Mn 1.34391 -0.12836 -5.50601 -0.00440651 0.451019 1.35417
Mn 4.03174 -0.12836 -5.50602 -7.28785e-06 0.444826 1.34289
Pt -2.68782 2.15736 -5.35631 0.000860356 -0.488443 -0.759625
Pt -8e-08 2.15736 -5.35631 -0.00700619 -0.489192 -0.783685
Pt 2.68782 2.15736 -5.35631 0.00637139 -0.482166 -0.768434
Pt 1.34391 -3.17897 -3.15231 -0.011579 0.0360377 0.481637
Pt 4.03173 -3.17897 -3.1523 -0.000411249 0.0424537 0.458071
Pt 6.71955 -3.17897 -3.1523 0.00648581 0.04591 0.662534
Pt 2.7e-07 -0.80118 -3.24532 -0.0225624 0.0860519 0.132836
Pt 2.68782 -0.80118 -3.24532 0.028777 0.0309294 0.0373407
Pt 5.37564 -0.80118 -3.24532 -0.00213657 0.0711725 0.0993195
Pt -1.34391 1.48492 -3.02806 0.0448011 -0.0641818 0.070236
Pt 1.34391 1.48492 -3.02805 -0.0681866 -0.0437357 0.0706208
Pt 4.03173 1.48493 -3.02806 0.0200458 0.00588257 0.0580078
Mn 4.03173 2.93592 -0.8693 -0.0946302 0.128979 -1.00299
Mn -1.34391 2.93593 -0.8693 -0.104669 0.232257 -0.931315
Mn 1.34391 2.93593 -0.8693 -0.0332597 0.165823 -0.852813
Pt 6.71955 -1.68084 -0.9373 0.591912 0.1565 -0.0312648
Pt 1.34391 -1.68084 -0.9373 -0.0282803 0.648162 0.617769
Pt 4.03173 -1.68084 -0.9373 -0.636182 0.857242 0.00523069
Mn -2.68782 0.96597 -0.9363 -0.452745 -0.47735 0.0235191
Mn 1.81e-06 0.96597 -0.9363 0.215084 -0.372641 -0.2592
Mn 2.68782 0.96597 -0.9363 0.198485 -0.756478 0.107733
Mn 0.18777 -2.17121 1.29444 -0.0821009 -0.0441773 -0.131513
Mn -2.22959 2.31093 6.66822 -0.0449227 -0.116601 0.66242
Pt 1.37799 -3.00524 3.37988 0.10841 -0.057594 0.184348
Mn 2.61516 -2.20279 1.21886 0.0262959 -0.108831 -0.254309
Pt 0.0914948 2.41398 5.51295 -0.147908 -0.14772 -0.28607
Mn 4.0986 -3.13689 3.36208 0.0283664 0.0164711 0.227304
Pt 5.27972 -2.2946 1.24268 0.0505831 0.0520882 -0.0880335
Pt 2.76304 2.28456 5.60604 -0.383918 -0.319545 -0.18979
Pt 6.75597 -3.05626 3.31771 -0.015926 -0.0841243 0.465348
Pt -1.2712 -0.0292474 1.1016 -0.299405 0.0986743 -0.0179997
Pt 0.292234 -2.58777 6.0486 0.076041 0.884395 -0.342435
Mn 0.125334 -0.65633 3.13909 0.137382 -0.084828 0.239613
Mn 1.37264 -0.134234 1.1381 0.066611 0.101809 -0.0107753
Pt 2.84068 -2.27104 5.57424 0.214312 0.057498 -0.472402
Pt 2.69396 -0.699329 3.21349 0.0354004 -0.154218 0.111017
Mn 3.82429 -0.0417845 0.969784 0.314824 -0.052342 0.148634
Pt 5.45281 -2.2026 5.70307 -0.206261 -0.099947 -0.209496
Pt 5.4313 -0.760763 3.40101 0.0831155 0.0214394 0.0309718
Pt -2.72737 2.39503 1.15178 0.0265192 -0.00777372 -0.117
Pt -1.28176 0.0765112 5.65752 0.0891598 -0.00828499 -0.150804
Pt -1.24493 1.57012 3.37576 0.0522051 0.0260215 0.103692
Pt 0.0150372 2.36453 1.18031 -0.0699269 -0.214738 0.134268
Pt 1.44265 -0.0203176 5.47772 0.00476374 0.20442 0.0954816
Mn 1.31128 1.52997 3.36828 -0.0515437 0.144945 0.14089
Pt 2.65548 2.22951 1.17143 0.216111 0.0970415 -0.139641
Mn 4.13841 -0.064268 5.49229 -0.0978069 0.415554 0.0441943
Pt 4.05437 1.55289 3.40649 -0.0523762 0.0848617 -0.182974
O 0.179134 -0.629657 6.95709 0.0565677 -0.27634 -0.173997
O 6.64344 -3.14482 7.04314 0.0817656 -0.235742 0.161134
O -1.73529 2.5754 8.10972 -0.0232698 -0.00402896 -0.0196901
O 4.37248 1.24195 6.67832 0.1564 -0.319852 0.00510771
