# LAMMPS data    SE RICORDO BENE NON è IMPORTANTE, SERVE SOLO COME PROTOTIPO DI INPUT
58   atoms
3 atom types
  0.00000000e+00   8.06346154e+00 xlo xhi
  0.00000000e+00   6.98061123e+00 ylo yhi
  0.00000000e+00   2.71866220e+01 zlo zhi
 -4.03173076987692 0 0.20631670725752604 xy xz yz

Masses

1 15.99
2 54.938044
3 195.08

Atoms # metal

1       3    0.000000930  -2.295720000  -5.508110000
2       3    2.687820000  -2.295720000  -5.508110000
3       3    5.375640000  -2.295730000  -5.508110000
4       2   -1.343910000  -0.128360000  -5.506020000
5       2    1.343910000  -0.128360000  -5.506010000
6       2    4.031740000  -0.128360000  -5.506020000
7       3   -2.687820000   2.157360000  -5.356310000
8       3   -0.000000080   2.157360000  -5.356310000
9       3    2.687820000   2.157360000  -5.356310000
10      3    1.343910000  -3.178967000  -3.152310000
11      3    4.031730000  -3.178967000  -3.152300000
12      3    6.719550000  -3.178966000  -3.152300000
13      3    0.000000270  -0.801180000  -3.245320000
14      3    2.687820000  -0.801180000  -3.245320000
15      3    5.375640000  -0.801180000  -3.245320000
16      3   -1.343910000   1.484920000  -3.028060000
17      3    1.343910000   1.484920000  -3.028050000
18      3    4.031730000   1.484930000  -3.028060000
19      2    4.031730000   2.935920000  -0.869300000
20      2   -1.343910000   2.935930000  -0.869300000
21      2    1.343910000   2.935930000  -0.869300000
22      3    6.719550000  -1.680840000  -0.937300000
23      3    1.343910000  -1.680840000  -0.937300000
24      3    4.031730000  -1.680840000  -0.937300000
25      2   -2.687820000   0.965970000  -0.936300000
26      2    0.000001810   0.965970000  -0.936300000
27      2    2.687820000   0.965970000  -0.936300000
28      2    0.187769824  -2.171207652   1.294442215
29      2   -2.229585836   2.310933375   6.668216847
30      3    1.377989027  -3.005242728   3.379877052
31      2    2.615156863  -2.202786831   1.218859721
32      3    0.091494753   2.413980463   5.512945262
33      2    4.098603589  -3.136887016   3.362075364
34      3    5.279723926  -2.294603574   1.242681883
35      3    2.763037799   2.284559630   5.606039486
36      3    6.755969451  -3.056257809   3.317711369
37      3   -1.271202016  -0.029247385   1.101595317
38      3    0.292233900  -2.587772037   6.048596754
39      2    0.125334196  -0.656329876   3.139093187
40      2    1.372640483  -0.134233705   1.138101810
41      3    2.840684703  -2.271043853   5.574239832
42      3    2.693958942  -0.699328574   3.213494915
43      2    3.824286297  -0.041784526   0.969783695
44      3    5.452805802  -2.202599087   5.703070959
45      3    5.431298519  -0.760763044   3.401007292
46      3   -2.727370914   2.395033346   1.151780510
47      3   -1.281763675   0.076511230   5.657521176
48      3   -1.244934908   1.570116543   3.375759138
49      3    0.015037198   2.364534822   1.180310261
50      3    1.442654124  -0.020317624   5.477720569
51      2    1.311277805   1.529965043   3.368281633
52      3    2.655484646   2.229514225   1.171427742
53      2    4.138413898  -0.064267983   5.492285381
54      3    4.054367810   1.552890565   3.406486911
55      1    0.179133786  -0.629657291   6.957086227
56      1    6.643440839  -3.144818792   7.043139959
57      1   -1.735285514   2.575401421   8.109717232
58      1    4.372475327   1.241948502   6.678322420
